# vtk DataFile Version 3.0
vtk output
ASCII
DATASET UNSTRUCTURED_GRID
POINTS 2515 float
413.201 831.5 99.3 509.718 776.342 338 454.454 1097.25 6.3 
423.541 750.066 342.3 1050.9 54.1341 11.1 379.953 760.774 15 
856.535 574.599 10.2 885.334 538.583 8.9 410.087 833.226 97.2 
1006.87 481.867 27.3 1048.35 53.9179 16 404.082 824.234 189.2 
766.467 633.772 10.7 1020.1 359.12 7.8 1046.23 106.45 31.5 
1006.76 369.337 15.4 411.755 857.86 54 318.907 725.004 10.6 
475.136 833.139 213.8 479.917 1102.02 91.8 668.615 768.072 15.3 
374.838 822.006 132.5 1006.09 395.388 16.9 1178.78 342.22 8 
370.835 820.885 125.9 369.723 762.159 118 396.299 824.057 160.4 
1039.34 809.837 10 426.988 827.124 217.8 1176.33 362.378 9.2 
1178.44 361.877 2.6 1285.41 342.321 9.2 444.335 836.437 230 
489.591 825.456 267.2 378.174 806.317 131.3 319.13 724.895 9.5 
318.128 726.3 10 320.352 725.301 9.4 885.556 547.767 8.1 
256.971 875.398 23.8 362.607 831.328 129.9 775.029 590.786 9.3 
1115.17 219.882 41.3 394.519 635.596 10.4 396.632 636.539 19.9 
379.953 786.133 146.4 379.508 633.843 5 414.535 778.799 318.2 
945.49 491.457 8.5 384.623 639.897 10 328.914 759.247 8.7 
732.663 625.736 7.9 890.671 663.259 10 597.117 874.445 9.4 
309.9 834.893 5 879.44 653.744 33.6 882.777 651.09 28.9 
597.784 874.197 15.8 599.007 872.621 13.3 880.553 651.459 10 
936.817 626.827 5.3 941.821 636.142 0.6 941.71 401.978 9.5 
937.262 625.425 8.3 282.769 802.644 22.5 937.929 632.174 4 
393.741 806.975 213.6 1256.73 526.838 4.6 372.614 791.841 179.7 
954.275 139.69 11 937.151 629.521 6 515.055 790.737 286.6 
612.017 822.332 10.4 304.341 764.956 33.1 833.184 590.091 10.5 
404.639 834.352 171 833.184 589.684 10.2 11.5641 700.207 10 
384.29 724.004 21.7 373.059 727.948 7.1 905.682 529.691 8.6 
375.394 489.998 14.8 931.702 400.715 6.4 537.516 854.581 8.2 
942.043 505.711 9.4 410.977 772.017 291 461.793 798.175 283.1 
369.278 815.075 119.1 335.253 783.772 38 428.323 797.739 277.2 
456.678 895.954 10.5 289.44 900.922 33.3 782.812 807.242 7 
969.842 551.762 10 485.811 798.147 272.6 924.252 520.413 7.7 
110.972 597.658 10.1 214.718 603.556 29.4 398.189 830.411 164 
1049.79 52.9608 16.6 1049.68 285.536 7.7 1050.57 286.523 9.4 
833.628 589.241 10 1048.01 93.9668 10.2 156.229 820.397 21.1 
601.787 786.957 10.8 249.744 941.917 10 378.841 801.052 169.4 
536.627 855.702 8.2 628.14 792.974 8.8 1213.47 477.363 7.1 
1262.17 347.576 10.3 917.136 535.087 10.2 247.409 944.672 10 
1114.4 557.535 1.3 613.796 767.21 7.2 402.637 798.335 266.4 
296.89 867.92 36.2 971.955 570.803 10.4 144.776 702.265 10 
537.85 810.4 9 537.739 811.26 8.5 538.628 811.331 8.5 
1050.57 287.469 7 307.009 752.888 22.5 386.625 797.28 180 
305.341 750.781 4.4 306.565 753.632 9.9 1153.31 385.977 10.2 
1242.49 592.762 1.3 333.918 790.529 9.4 110.083 636.822 34.1 
989.413 429.345 6.1 1093.16 202.039 46.7 1048.68 52.8906 11.8 
925.475 519.599 8.2 1094.83 394.975 3.5 984.854 886.309 10 
1226.81 619.42 7.1 318.907 862.256 61.7 432.548 941.841 4.3 
843.747 528.312 7.4 788.928 602.148 9.2 931.369 512.183 8 
1068.58 59.8883 9.5 931.258 511.951 8.8 537.071 854.803 9.2 
917.469 523.01 9 379.175 805.344 127.6 399.523 651.831 32.7 
394.519 791.342 8.3 334.363 790.395 8.9 333.585 791.522 12 
335.809 790.069 8 1328.11 438.224 120.1 537.294 855.116 8.7 
536.849 853.134 7.7 1046.46 57.4022 10.4 534.069 846.167 8.9 
821.842 589.902 10.2 821.953 588.264 8.9 406.974 825.899 155.5 
483.698 794.791 261.5 432.215 1002.99 22.8 300.782 781.759 27.5 
300.782 783.159 20.3 239.736 678.732 10 437.441 791.523 270 
426.099 800.73 272.5 1227.93 602.968 6.9 353.6 799.582 116 
49.593 796.223 30 488.924 807.619 158.9 994.416 457.953 25.1 
65.3825 800.928 3.3 650.379 545.102 10 1213.8 641.554 0.9 
259.64 842.905 28.4 1048.9 56.1205 8.5 427.544 816.571 216.2 
931.258 515.879 8.1 116.755 634.393 10 923.474 526.893 63.4 
408.53 832.365 165.3 500.266 799.225 291.5 535.848 847.487 8.3 
367.833 821.474 119.9 537.739 851.251 2 904.126 391.199 8 
358.159 777.743 211 900.345 1005.91 2 311.346 776.738 27.3 
536.96 854.9 9 411.977 824.742 173.6 244.851 992.921 10 
988.745 580.387 7.7 248.076 818.997 13.5 991.636 553.914 33.9 
925.809 519.254 7.8 1170.1 638.101 9.6 545.077 810.363 292.8 
925.364 519.046 7.3 921.027 522.341 7.2 408.641 833.732 147.8 
393.297 753.371 10.8 398.189 815.474 151.1 1175.22 640.785 1.5 
1174.33 637.234 4.6 267.98 888.011 32.1 341.035 892.007 39.8 
920.027 523.139 8.4 301.116 686.742 3.5 769.802 835.881 10 
1045.34 53.4685 11.3 350.486 798.523 11.8 1385.6 707.796 2 
878.774 557.266 9.3 879.329 556.575 9.8 1046.34 56.2993 10.9 
369.278 660.97 4.4 815.17 134.673 39.1 336.365 1016.7 94.9 
286.883 867.84 29.8 554.752 831.44 10.1 305.452 686.961 7.8 
351.042 725.481 15 408.753 838.893 160.8 445.447 790.413 291.8 
414.646 770.948 301 760.796 825.769 10.1 395.854 635.31 10 
379.619 637.469 9.7 1044.9 52.841 5 403.193 838.483 149.3 
413.645 968.446 65.7 996.195 203.42 9.3 156.007 660.686 10 
857.313 527.292 6.2 857.424 527.527 6.6 935.483 511.078 9.4 
320.241 778.092 9.2 418.204 827.67 190 858.203 528.521 6 
934.816 511.448 8.3 884.667 556.473 7.8 1015.21 111.528 15 
366.943 817.323 125.6 506.493 848.667 93.7 1336.34 471.875 8 
854.533 529.365 6.3 378.285 870.194 10.8 469.354 899.639 28.3 
935.038 510.71 5.1 935.928 509.843 6 935.483 510.036 9.7 
937.262 508.624 8 936.595 508.432 9 936.372 510.051 8 
937.373 508.856 9.2 936.929 508.888 9.3 266.089 919.424 37.9 
936.929 634.028 2.3 936.372 508.769 9.2 936.372 510.371 9.2 
687.184 767.088 22.6 937.151 509.353 9.3 936.929 508.969 9.1 
929.478 519.621 8.8 936.929 509.449 9 937.262 508.864 9.2 
937.04 509.201 8.9 1245.05 517.28 3.9 936.039 510.075 9 
947.269 506.05 7.4 922.473 523.838 7.5 922.14 523.783 9.2 
922.362 523.927 7.2 303.673 875.537 42.9 1202.02 369.464 4.6 
1002.76 452.319 24.6 1001.2 452.659 25.6 450.34 802.753 255.4 
1242.83 516.841 8.1 225.615 901.881 10 1162.21 688.77 10 
347.929 763.418 8.6 350.153 763.626 5 1184.11 683.662 10 
1076.81 443.359 32.7 345.705 856.762 12.6 1060.69 276.498 3.1 
286.661 794.96 7.6 321.242 773.715 36.8 522.505 831.114 2.8 
856.646 545.333 7.3 367.611 766.709 10.8 373.059 771.263 176.9 
191.811 793.9 5.6 90.0678 1149.63 9.8 386.847 814.291 129.2 
856.757 545.487 8.4 755.013 686.179 22.6 368.055 845.896 16.5 
404.527 825.911 177.7 399.968 794.477 196.6 1116.4 664.13 10 
592.669 755.905 3.7 575.434 781.297 8.4 574.322 775.767 7.6 
364.608 770.311 9 820.063 535.958 2.8 927.143 520.277 9.3 
454.899 894.198 8.4 1237.82 139.558 9.9 356.157 797.747 114.8 
1182.11 673.898 10 344.815 790.342 7.8 283.881 683.397 5.3 
926.031 519.558 8.6 740.781 645.208 9.6 923.807 523.818 6 
231.063 498.991 10 815.726 591.636 9.3 369.39 803.622 145.7 
849.641 577.435 9.9 848.973 577.814 9.5 222.835 763.476 22.6 
1009.87 203.412 6.6 1166.32 81.7248 11.8 919.471 522.86 7.2 
337.921 837.804 10.8 1160.99 691.842 10 929.923 519.427 8 
472.245 793.886 268.7 869.656 40.1224 10 759.239 596.209 9.6 
758.905 596.565 9.9 922.029 524.353 7.6 765.91 763.853 10 
457.345 918.058 18.2 371.614 810.663 119.3 925.03 519.713 5.1 
561.312 837.029 11.1 929.701 519.684 5.2 979.071 120.636 8.4 
510.718 765.692 300.4 928.922 517.016 8.2 925.698 519.743 7.7 
369.39 816.97 128.3 923.251 522.816 7.3 924.03 523.4 7.4 
922.807 522.93 5.3 536.738 850.859 8.3 929.256 517.632 6 
597.45 763.476 2 596.895 764.711 6.3 1032.11 497.399 33.2 
846.749 546.103 9.2 318.128 828.574 55.9 698.638 698.162 17.9 
700.417 699.811 10.8 699.305 698.428 11.1 376.84 717.71 10 
369.946 713.084 12.1 208.713 781.44 25.7 405.973 828.166 155.4 
313.458 884.271 36.8 275.207 897.435 30.7 276.208 901.529 30.8 
923.807 520.607 8.6 925.92 520.288 8.7 408.753 818.546 221.4 
394.631 692.684 19.2 990.524 386.666 31.5 371.28 818.671 125.1 
365.72 773.145 11 367.166 771.783 12 300.56 733.763 36.2 
1091.71 411.996 4.3 701.418 693.501 10 1306.32 392.355 10.4 
699.75 698.716 6.1 903.681 803.378 2 924.364 520.405 8.2 
923.696 521.177 6.1 924.475 520.477 5.9 924.475 520.557 8.1 
923.807 520.125 8 922.695 521.252 5.4 887.002 552.495 7.5 
887.002 552.737 7.4 923.474 523.843 5.9 925.586 522.721 5.4 
344.927 784.678 10.6 406.751 829.028 159.6 183.917 792.495 4.6 
702.863 697.171 13.7 410.754 571.036 9.5 360.716 817.134 118.9 
889.004 605.336 31.9 697.304 698.706 9.7 702.196 695.993 23.3 
699.305 698.097 19.6 702.641 696.364 9.8 702.863 697.171 10.4 
702.863 696.922 10.5 702.752 695.856 10.9 701.195 695.511 18.2 
703.086 697.646 10.5 698.638 698.162 10.5 703.197 698.298 36.8 
701.529 696.141 10.3 700.194 696.768 11.1 701.64 696.047 22.5 
698.526 698.338 10.5 700.862 696.537 22.5 702.752 698.258 24.7 
700.083 697.938 10.5 700.305 697.585 10.9 925.586 521.035 7.5 
887.447 902.8 10 925.253 521.141 8.2 925.253 522.023 7.8 
685.072 739.5 21.8 924.697 521.905 7.3 1325.78 262.106 2.4 
923.363 522.808 8.7 378.397 825.338 133.9 344.927 783.896 10 
921.917 525.486 8.1 924.252 522.018 9.3 343.592 783.513 15.8 
376.284 816.739 125.8 1157.43 320.895 7.7 342.035 831.258 4.3 
346.15 830.108 7.3 1161.65 315.267 10.9 923.585 521.988 8.8 
924.03 521.634 8.3 923.696 522.06 8.3 1046.46 58.5061 9.2 
1006.87 385.033 9.9 1006.76 385.912 12.2 734.22 726.114 14.8 
924.03 521.634 9.3 734.331 725.856 25.7 924.919 521.647 9.2 
1077.03 52.2783 11.1 923.585 522.39 8.7 924.252 522.5 9.1 
923.807 522.534 8.9 1047.79 327.791 23.4 1251.39 518.544 6.1 
330.138 891.817 10.1 357.491 630.41 6.7 177.69 792.96 10.3 
299.337 763.712 29.4 1024.33 760.435 18.2 516.056 801.082 10 
437.552 849.311 57.3 1095.38 406.998 6.7 370.39 740.773 219.7 
184.917 745.327 33.7 821.397 606.147 17.9 389.961 626.822 10 
1047.46 94.0533 10 385.957 629.405 32.7 924.808 521.575 8.7 
925.03 521.88 8.5 271.427 899.989 30.2 400.413 1026.1 35.6 
842.079 585.203 13.7 841.19 584.546 11.4 925.03 521.639 9.6 
840.856 584.737 13.2 435.995 832.308 111.5 461.348 939.051 23.8 
1083.15 425.849 6.2 418.871 804.349 220 376.284 815.786 134.5 
461.014 935.84 18.5 450.895 947.491 10 540.518 846.694 6.1 
[...]
POINT_DATA 2515
SCALARS strength float
LOOKUP_TABLE default
2.8 2.6 3.5 3 2.9 3.1 2.7 2.7 3.2 
2.7 3.1 3 3 3.1 2.6 4.1 2.7 2.8 
2.6 3.8 2.6 2.7 2.6 2.7 2.9 2.6 3.1 
4.1 3.2 2.6 3.6 2.7 2.9 3.8 2.6 2.8 
3.3 3.7 2.7 2.6 2.6 2.8 2.6 2.7 2.8 
2.6 2.7 2.9 2.6 3.2 2.6 3 2.6 3.1 
2.6 2.9 3.4 3.7 2.8 2.8 3.4 2.7 3.4 
2.9 2.6 3.3 2.6 2.8 3.1 2.7 2.9 3 
3 2.7 2.9 4.3 3 2.6 2.8 2.7 2.7 
3.4 2.6 3.5 2.6 2.9 3.8 2.6 3 3.6 
2.7 2.7 3.4 2.6 2.8 2.7 2.7 3.1 2.8 
3.3 2.6 2.6 2.6 3.2 3 3.4 2.6 2.9 
2.7 3.3 2.8 3 2.6 2.6 2.8 3.1 2.6 
3.1 2.6 2.7 3.3 2.8 3.9 2.6 3.1 3.4 
2.6 2.6 2.9 2.6 2.6 3.1 3.1 2.7 3.3 
2.7 2.8 3.8 2.6 3.5 2.9 3.5 2.8 3.2 
3.3 2.6 2.6 2.6 2.6 2.7 2.8 2.8 2.6 
3.6 2.6 2.6 4 2.8 3.7 2.6 3.1 2.7 
2.7 2.7 2.6 2.7 2.9 2.6 3.6 3.4 2.6 
3 2.6 2.6 3.5 3.1 3 2.8 2.8 3.7 
2.7 3.2 3.3 2.8 2.6 2.9 2.6 2.9 2.6 
2.6 3.8 2.6 2.9 2.6 2.9 2.7 2.6 3.5 
2.7 2.7 3.1 3 2.6 2.7 3.1 2.6 2.6 
4.3 2.6 2.6 3.7 2.6 2.6 2.6 2.7 3.7 
2.8 3.3 2.8 2.9 3.1 2.6 2.6 2.6 3 
2.6 2.6 3 2.8 2.6 2.9 2.7 4.7 2.6 
4.7 3.4 2.7 3.1 3.1 3.1 2.6 3.2 2.8 
3.1 3 2.6 2.6 3.5 3 3 3 3.6 
2.8 3.2 3.1 2.6 2.7 3.3 2.7 3.3 3.8 
2.7 3 2.7 3.2 2.9 2.7 2.9 2.8 2.6 
2.9 2.9 2.8 2.8 2.9 2.6 3.2 2.9 2.8 
2.7 3.2 3 2.8 2.9 3 2.8 2.8 4.4 
2.6 2.6 2.6 3 3.8 2.9 2.6 3.4 2.7 
2.6 3.5 2.6 2.9 2.6 2.9 2.9 2.9 3.2 
2.8 2.7 2.9 2.6 2.9 2.9 2.6 2.6 2.6 
2.9 3 3.1 2.9 3.4 2.6 3.1 2.9 4 
2.6 3.4 2.6 2.6 2.6 2.6 2.9 3 2.6 
3.2 2.6 2.9 2.7 3 2.6 2.7 2.9 2.8 
2.7 2.9 2.8 3.1 2.6 2.7 2.6 2.6 2.6 
3.2 2.6 2.8 3.7 3.6 2.6 2.8 3.2 3.7 
2.6 4.2 2.8 2.7 2.6 2.7 3.1 2.7 2.7 
2.7 2.6 2.7 2.6 2.8 2.6 3.8 3.9 3 
2.6 2.7 3 2.7 3.5 2.7 2.6 3.1 3.2 
2.7 3.4 3.5 2.9 2.6 3.1 3 2.6 2.8 
2.6 3.2 2.6 3.2 2.8 2.7 2.9 3.1 2.9 
2.8 3.2 3 3.2 3.8 2.6 2.7 2.8 3 
2.8 2.7 2.6 5 2.7 2.6 4 3.3 3.3 
2.6 3.5 3.5 2.8 2.8 2.8 2.7 2.6 2.9 
2.9 3.2 2.8 4 3.2 2.9 3.9 3.6 3 
2.7 2.6 2.9 2.6 3.8 3.2 2.6 2.6 2.9 
3.7 2.6 3 2.8 2.9 3.9 3.2 3.3 2.7 
3 2.7 3 2.7 3.7 2.6 2.6 3.2 2.6 
2.7 3 2.9 3 3.7 2.6 2.9 3 2.7 
2.6 2.6 2.7 2.7 2.6 2.7 3.3 3.7 3 
2.7 3.6 3.1 3 2.6 4.8 2.6 2.6 2.8 
2.9 2.8 2.8 2.7 3.1 2.8 2.6 2.6 2.7 
2.7 2.6 3.3 2.8 2.9 2.7 2.8 3.4 2.6 
3.1 3.2 2.8 2.7 3.1 3.1 3 3.2 2.6 
2.6 2.9 2.9 2.6 2.6 2.6 2.9 2.6 3.1 
2.8 2.8 2.7 2.6 3 3.4 2.9 2.6 3.2 
2.6 3.3 3.5 2.7 2.6 3.2 3 2.6 3 
2.6 2.7 2.7 2.6 3.4 3.2 3.2 3 3.4 
2.8 2.8 2.8 2.7 3 2.8 2.8 3.3 3.3 
2.7 3 2.6 2.6 2.8 2.9 2.8 3 2.8 
2.7 2.9 3.3 3.6 3.2 3.3 3 3 2.7 
2.6 3 3.4 2.7 3.6 2.6 3 2.7 2.6 
3.3 3.2 3.3 2.9 2.6 3.4 2.7 3.5 3.3 
4.2 2.8 2.7 2.9 2.8 3.3 2.9 3 3 
3.5 2.8 3 2.9 3 2.7 3.1 3.8 2.6 
2.8 3.7 3.2 2.6 4 3.3 2.6 2.7 4.2 
2.9 2.6 2.6 3.1 2.8 2.7 2.9 3 3.3 
3.2 2.6 2.6 2.6 2.6 2.6 4.2 4.4 3.5 
2.6 3.8 2.6 2.9 2.7 3.4 2.7 2.8 2.9 
2.6 2.6 2.8 3 2.6 2.8 2.8 3.1 2.8 
2.6 2.8 2.8 4.2 3.4 2.6 2.7 2.8 2.7 
2.9 2.6 3 2.8 2.6 2.8 3.3 2.8 3 
2.6 2.7 4 2.6 4.9 2.6 3.2 2.9 2.7 
2.7 2.7 2.6 2.7 3.6 2.7 2.7 3 3.3 
2.7 3.4 2.7 2.6 3 2.6 2.8 3 3.2 
3 3.2 2.7 2.7 2.6 4 2.7 2.6 3.1 
2.9 3.4 3 3 3.1 2.6 2.6 2.7 3.8 
2.8 2.8 2.7 3 3.2 2.7 2.6 3 2.6 
3 2.7 2.6 3.3 3 2.6 3.5 2.8 2.7 
2.6 2.7 4.5 2.7 3.3 3.4 3.4 3.2 2.8 
2.7 2.6 2.8 2.8 2.6 2.7 3 2.8 2.6 
2.6 4.4 3.5 2.8 3.1 2.7 2.6 2.6 3.4 
2.6 2.8 2.7 2.6 3 3.5 3.6 3.2 3.2 
3 2.6 2.8 3.6 4 2.9 3 3 3 
2.6 3.2 2.6 2.6 2.6 3.1 5.1 3 2.7 
2.6 3 2.7 2.8 3.5 2.6 3 4.2 3.4 
3.7 2.8 2.8 2.9 2.7 3.8 2.6 2.7 3 
2.8 2.9 2.7 3 2.7 2.6 3.7 2.6 2.8 
2.6 2.9 3 3 2.9 2.6 3 3.6 3 
3 2.9 3.4 3.5 2.7 3.6 3.7 2.8 2.8 
3 2.6 2.6 2.8 2.6 3.3 3.4 2.7 2.8 
3.2 2.6 2.6 3.4 2.7 3.1 3 2.7 2.7 
3.2 2.7 3.3 3.6 2.8 2.8 2.7 3.8 3 
2.6 2.8 3.3 2.6 2.6 2.6 2.6 2.6 2.7 
2.9 3.6 2.7 3.2 3.1 2.6 2.7 2.6 2.7 
2.7 2.6 2.6 2.9 2.8 3.6 3.4 2.8 2.7 
3.3 3.1 3.2 2.7 2.7 3.2 2.8 2.9 3.5 
2.6 2.9 2.6 2.6 3.2 2.6 3.1 3.4 3.3 
2.8 3.4 2.6 2.8 3.5 2.6 2.7 2.6 2.8 
3.2 2.7 2.6 3.2 2.7 2.8 3 4.4 4.4 
2.8 2.8 3 3 3 2.9 3.3 3.4 2.8 
2.6 3.1 2.9 2.8 2.7 3.4 3.4 2.6 3.8 
3.6 3 3.2 2.6 2.6 2.8 2.6 3.4 3.4 
2.8 2.8 3.4 3.6 3.1 2.8 3.4 3.3 3.1 
2.7 2.6 3 3.7 2.7 2.9 3.2 2.8 2.6 
2.6 3.1 3.3 3.4 3.1 2.8 2.7 2.9 2.6 
2.7 3.6 4.8 2.8 2.7 3.1 2.6 2.6 2.7 
3 3.4 2.7 2.6 3.4 2.7 3.1 4.3 3.9 
2.7 3.9 4.4 3.3 3.1 3.1 2.6 2.9 2.9 
2.9 2.8 2.8 2.8 2.6 4.8 3.4 2.9 3 
3 2.7 2.6 3 2.6 3.1 4.2 2.8 3.4 
3.3 3.1 2.6 2.6 2.9 2.6 2.6 3.4 3.2 
2.7 3 2.8 4.2 2.6 2.9 2.8 2.9 2.6 
2.6 2.6 2.7 2.7 2.6 2.7 2.9 2.6 3 
2.7 2.7 3 2.8 2.7 2.6 2.9 2.9 2.8 
3.4 2.6 2.7 2.6 2.6 2.6 2.9 2.6 3.2 
3 2.8 3.4 3.1 2.6 2.6 2.7 2.7 2.8 
2.7 2.8 2.6 3.2 4.1 2.9 2.6 3.3 2.6 
3 4.1 3.4 2.6 2.8 3 2.8 2.6 3.2 
3.1 3 3 3.1 2.8 2.9 3.3 3.1 2.8 
3.1 3 2.6 2.9 3.2 2.6 3 3.2 2.7 
3 2.9 2.6 3.6 3.1 2.8 2.8 2.7 2.7 
2.6 2.6 2.8 2.6 2.6 2.6 2.9 2.8 3.7 
3.9 3.6 2.6 2.9 2.6 2.6 3.9 3.3 2.9 
2.6 2.6 2.8 3.3 3.5 2.9 3 3.2 2.9 
3.4 3 2.7 2.6 2.8 4.5 2.6 3 4.4 
4.3 2.8 3 2.6 2.6 2.6 3 2.6 2.7 
2.6 3.3 2.8 2.7 2.6 2.7 3.2 3 2.8 
2.6 2.8 3.1 2.6 2.8 2.9 2.7 2.6 2.7 
2.6 2.6 3.3 2.6 2.6 3 2.6 2.9 2.7 
3.2 2.9 2.6 3 3 2.6 2.7 2.9 2.6 
2.8 3.1 2.8 2.8 2.6 2.7 2.7 2.8 2.7 
2.9 2.9 2.8 3.2 2.7 5.2 3.2 3 3.3 
2.6 2.7 2.6 2.7 3.2 3.5 4.6 2.6 2.7 
2.6 2.7 2.8 2.8 2.6 2.6 2.8 2.6 2.7 
2.6 2.6 2.7 2.7 2.9 3.1 2.8 3 2.6 
3.2 4.3 3.8 2.7 2.6 3.3 3.4 3.7 2.8 
4.2 2.6 3.1 2.8 2.7 2.7 3.8 2.9 3.5 
4.2 2.6 2.7 2.7 3.1 2.8 3.4 2.7 2.8 
2.6 2.6 2.9 2.6 2.9 2.8 3.9 2.7 3.8 
2.7 3.7 3 2.7 3.2 2.7 2.8 2.6 2.6 
2.8 2.7 2.8 3.4 2.6 2.8 3.1 3 2.6 
3.1 2.6 2.8 2.6 2.9 2.6 2.6 2.8 2.8 
2.6 2.8 3.4 2.6 3 3.5 2.9 2.8 4.5 
3 2.8 2.6 2.8 2.6 2.6 2.6 2.6 2.7 
2.7 3.7 2.9 2.6 2.7 2.6 2.6 2.8 2.6 
2.9 2.9 2.7 3.8 2.8 4 3.5 2.7 2.7 
4.2 2.8 2.6 2.7 3 2.6 3 3.3 3 
2.6 2.6 2.6 2.6 4.6 3.1 2.7 3.1 2.7 
4.8 2.6 2.9 3 3.5 3 2.7 2.6 2.6 
2.6 2.7 2.7 2.8 2.6 2.6 3.3 2.6 2.6 
2.7 2.9 2.9 2.6 3 2.6 3.1 3 2.8 
3 2.8 2.6 2.6 3.7 2.8 2.8 2.9 2.8 
2.7 3.5 2.8 2.6 2.8 2.7 2.7 2.6 2.7 
2.8 2.6 2.6 2.8 2.8 2.8 4.1 4.5 2.9 
2.6 2.7 2.8 3 2.9 3 2.6 3.2 3.1 
2.8 3.1 2.9 3.2 2.6 3.3 3 3.7 2.6 
3.1 3.1 3 3.4 3.1 2.7 2.6 2.8 2.7 
2.8 3.3 2.6 3.5 2.9 2.8 4.2 3.2 2.8 
2.9 2.7 2.6 2.6 2.6 2.8 2.7 3.7 2.8 
3.6 3.7 2.6 2.6 2.9 3.6 2.7 2.9 2.6 
2.8 2.8 3.1 3.4 3 3.9 3.4 2.6 3 
2.6 3.1 2.7 3.7 3 2.7 2.6 3.4 2.6 
3 4 2.6 2.6 2.7 2.9 2.6 2.7 2.7 
2.6 2.7 2.6 3 3.3 2.7 2.8 3.2 2.7 
2.7 4 2.6 2.9 2.6 2.7 2.7 2.9 2.6 
2.7 2.8 2.7 2.6 2.8 3 3.6 3.2 3.1 
2.9 2.8 2.8 2.7 3.2 2.8 3.4 3.8 3.2 
2.7 2.6 2.7 3.1 3.3 2.6 2.6 2.6 3.1 
2.6 2.6 2.8 3.5 2.6 3.3 4.7 3.8 3.4 
2.7 2.8 2.9 2.6 2.6 2.9 2.9 2.7 3.2 
3 2.6 3.5 3.2 2.6 2.6 2.6 3.6 2.9 
3.4 2.7 2.8 2.6 2.8 2.6 2.7 2.8 2.9 
3.1 3.2 3 3.8 2.9 3.6 2.9 2.8 2.6 
2.6 3.3 3.7 2.6 2.7 3.2 2.6 2.6 2.6 
3.2 2.7 2.9 2.7 2.6 3.6 2.9 3 3.1 
2.6 2.7 2.6 2.6 2.8 2.8 2.7 2.6 2.6 
3 2.6 3 2.6 2.9 3.2 2.6 2.6 2.8 
2.8 3 3.2 2.7 2.9 2.6 2.7 3 2.7 
3.8 2.8 2.9 2.6 3.3 2.6 2.6 2.8 2.8 
2.8 2.8 2.6 2.6 3.1 2.6 2.9 3.2 2.9 
3.1 2.6 2.7 2.6 2.7 2.6 2.9 2.7 2.9 
2.6 2.6 2.8 2.6 2.6 2.8 3 3 2.6 
2.6 2.9 2.6 2.8 3 3 2.6 3 3.1 
3.1 3.2 2.6 3 2.8 3.2 3.8 3 2.6 
2.6 2.6 2.6 2.9 2.8 2.8 3 2.6 2.7 
3.1 2.6 2.6 3.2 2.7 3 2.9 2.9 2.6 
3.9 2.8 3.5 3 2.7 2.6 2.9 2.9 3 
3.1 2.8 3.2 3 2.9 2.9 2.9 2.9 2.7 
2.7 2.6 2.7 2.7 2.7 2.8 2.9 2.7 3.1 
2.6 2.7 2.7 2.8 2.7 3.1 3.1 3.1 3.3 
3.2 3.6 4 5.1 5 5.3 2.6 3.4 3.6 
3 2.6 2.6 3.3 2.6 2.6 2.8 4 3 
3.7 4.1 2.7 3.4 2.7 2.6 3.5 3.1 2.7 
3 3.5 3.2 2.7 2.6 3.5 4.1 4.1 3.6 
3.8 2.8 3.1 4.6 5 2.7 3 2.9 3.8 
3.9 3.5 2.6 2.6 3 2.8 3 3.3 3.1 
3.2 2.9 2.8 3.7 2.9 3 2.8 3 2.6 
2.9 2.9 3.2 3.8 2.9 3.2 3.2 3.2 2.9 
2.7 3.2 3.6 3.2 3.5 3.6 3.2 3.8 3.6 
3.6 3.6 4 5.6 2.6 2.9 2.8 2.9 2.7 
3.2 2.6 2.9 2.6 2.8 2.6 2.7 2.7 3.2 
2.6 4.3 2.9 3.8 3.8 2.9 2.6 3.1 2.8 
2.7 2.6 3.2 2.8 2.7 3.8 3.2 2.8 3.2 
2.9 2.9 3.4 2.7 2.9 3.4 3.7 3.8 2.6 
2.9 3.9 2.6 2.8 2.9 3.2 2.8 2.6 2.9 
2.9 2.7 2.8 2.7 2.8 3.3 2.6 2.6 2.6 
3.4 3.1 2.7 2.9 2.7 2.6 2.9 2.6 3 
2.6 2.7 2.6 3.8 2.9 3.2 2.6 2.7 3 
2.6 2.8 3.2 2.7 3.7 2.9 2.6 2.7 2.7 
3.4 2.8 3 3.8 2.6 3.2 2.7 2.9 2.7 
2.9 2.9 2.7 2.6 3.7 2.9 2.7 2.8 2.8 
3.2 2.6 2.8 2.7 2.9 2.8 2.6 3.3 3.5 
3 3.6 3.4 3.1 2.8 2.6 4.1 3.4 2.8 
2.8 2.6 2.9 3.3 2.6 2.8 3.1 2.7 3 
3.3 2.7 2.8 2.6 3.1 2.6 3.8 2.7 2.6 
2.7 3.7 2.6 2.6 3.6 2.7 2.6 2.9 2.7 
2.7 2.6 2.7 3.1 3.3 2.9 3.1 3.6 4.6 
4.2 2.9 3.1 3 2.6 2.6 2.8 2.7 3.8 
2.6 2.8 2.6 2.8 2.7 2.9 4.1 4.9 3.3 
3.9 2.6 2.9 2.6 2.8 3 3.5 2.7 3.3 
2.7 3.8 2.6 2.6 2.6 2.6 2.6 4.2 3.4 
2.6 2.8 2.6 3.6 2.7 2.9 2.7 3.4 2.7 
2.9 3.1 3.6 2.6 2.7 2.7 3.2 2.8 3.2 
2.6 2.6 2.9 2.8 2.6 2.6 2.8 3.1 2.8 
3 2.7 2.8 3.3 2.7 2.8 2.6 2.8 2.9 
2.6 2.8 2.6 2.8 2.9 2.6 2.6 2.8 2.9 
2.7 2.9 2.9 3.3 3.3 3 2.6 2.6 2.6 
2.8 2.8 3.7 3.2 3.7 5 2.6 2.8 3.1 
3.2 3 3 3.2 2.6 2.7 2.6 3.4 3.7 
3.3 3.6 4 3.7 4 3.3 3.8 3.5 2.8 
3.6 3.9 4.1 4.2 3.7 3.4 3.2 4.3 4.3 
4.3 5 4.8 4.8 5.8 4 2.6 2.9 2.8 
2.6 2.9 2.7 2.6 2.7 3.4 2.8 2.6 2.8 
3.2 2.6 2.9 3.3 2.6 2.8 2.6 2.6 2.8 
3 3 3.9 2.9 2.7 2.6 2.6 3.5 2.8 
3.4 2.6 2.7 2.7 3.3 3.3 2.8 2.7 3.2 
2.9 4.3 3.2 3 3.1 2.6 3.1 2.8 3.4 
2.9 2.6 2.8 3.1 2.9 2.6 2.6 2.7 3.1 
2.6 2.8 2.6 2.8 3.4 2.7 3 2.9 3.9 
2.7 3.2 2.9 2.6 2.8 3.1 3.6 3.3 2.6 
2.6 3.3 3.6 3 2.9 3.2 3 2.8 2.9 
3.3 2.8 2.6 2.6 2.6 2.7 3.2 2.6 3.3 
2.8 3.7 3.4 2.7 3.7 2.8 2.6 3.5 3.4 
3.2 2.6 2.9 3 2.8 3.9 2.6 2.9 4 
2.6 2.7 3.9 2.7 3.6 2.6 3.4 2.6 3.7 
2.7 2.8 3 3.4 2.6 2.6 3.3 4.1 3.7 
3.9 2.6 3.1 2.6 2.7 2.6 3 2.8 2.7 
2.6 3.1 2.8 3.5 3.3 2.6 2.7 2.7 2.9 
3 3.3 3.8 3 2.8 2.6 2.7 2.7 3.1 
3.4 2.8 2.7 2.6 3.1 2.8 2.7 3 2.9 
3 3.1 3.1 4.9 2.6 2.6 2.9 3.2 3.4 
3.6 4.9 3 3.8 2.8 2.9 2.7 3.4 3.3 
3.5 2.6 2.8 2.7 3.2 2.7 2.6 3.2 2.6 
2.6 2.8 2.7 2.6 2.8 3 3.2 2.6 2.7 
2.7 2.9 2.8 2.6 2.9 2.9 3.1 2.9 3.4 
2.8 2.8 3.2 2.6 2.7 3.6 3.3 2.7 2.8 
3.3 2.6 2.6 2.8 2.6 3 3.5 2.8 3 
4.5 3.4 3.4 3 3.4 2.9 2.7 2.7 2.8 
2.8 2.8 3.2 3.1 2.7 3.2 4 3.1 3.6 
2.6 2.7 3.8 3.1 3.6 2.6 2.6 2.7 2.9 
2.6 2.8 2.6 3.1 2.6 2.8 2.6 2.6 2.6 
3.2 3 2.7 3.3 2.6 2.8 2.6 2.7 3 
3.6 2.7 2.9 2.8 2.6 3.6 2.6 3.1 3.1 
2.6 2.6 2.6 3.1 3.3 2.8 2.6 2.9 2.8 
3.6 3.1 3 2.7 2.8 4.1 2.6 2.7 2.6 
2.7 2.6 3.3 2.7 2.7 2.6 2.8 2.7 3.1 
2.8 2.8 4 3 2.9 3.5 3.7 2.9 3.6 
2.8 2.6 3.2 3.4 3.6 3 2.7 3.8 2.8 
3 2.9 3.1 2.7 3.5 2.7 3 2.7 2.6 
2.6 3 2.6 2.9 3 2.6 2.9 3.4 2.7 
4 3.7 3.1 2.6 3.4 2.8 3 3.1 2.8 
3.5 2.9 3.7 2.8 2.7 2.7 2.8 2.7 3.1 
2.6 2.6 3.1 3.1 3.3 2.9 2.9 3.1 2.7 
2.7 2.8 3.1 3.3 2.9 2.7 2.9 4 2.9 
2.6 2.8 3.1 2.8 
FIELD FieldData 1
time 1 2515 float
1.41145e+06 1.41132e+06 1.41131e+06 1.41121e+06 1.41112e+06 1.4111e+06 1.41107e+06 1.41099e+06 1.4109e+06 
1.41076e+06 1.41055e+06 1.41027e+06 1.41019e+06 1.41017e+06 1.41017e+06 1.41008e+06 1.41003e+06 1.41002e+06 
1.40994e+06 1.4099e+06 1.40988e+06 1.40984e+06 1.40983e+06 1.40979e+06 1.40956e+06 1.40954e+06 1.40954e+06 
1.40942e+06 1.40924e+06 1.40924e+06 1.40924e+06 1.40922e+06 1.40922e+06 1.40915e+06 1.40908e+06 1.40902e+06 
1.40901e+06 1.40901e+06 1.409e+06 1.409e+06 1.40898e+06 1.40856e+06 1.40845e+06 1.40843e+06 1.40843e+06 
1.40834e+06 1.40824e+06 1.40823e+06 1.40816e+06 1.40816e+06 1.40801e+06 1.40799e+06 1.40793e+06 1.40792e+06 
1.40789e+06 1.40788e+06 1.40788e+06 1.40787e+06 1.40786e+06 1.40779e+06 1.40761e+06 1.40759e+06 1.40758e+06 
1.40756e+06 1.40756e+06 1.40755e+06 1.40755e+06 1.40749e+06 1.40748e+06 1.40748e+06 1.40747e+06 1.40744e+06 
1.40731e+06 1.40713e+06 1.40713e+06 1.40712e+06 1.4071e+06 1.40697e+06 1.40694e+06 1.40694e+06 1.40694e+06 
1.40687e+06 1.40685e+06 1.40677e+06 1.40664e+06 1.40657e+06 1.40655e+06 1.40627e+06 1.40616e+06 1.40609e+06 
1.40601e+06 1.40596e+06 1.40593e+06 1.40586e+06 1.40576e+06 1.40569e+06 1.40551e+06 1.40545e+06 1.4054e+06 
1.4053e+06 1.40529e+06 1.40527e+06 1.40524e+06 1.40524e+06 1.40511e+06 1.40511e+06 1.40504e+06 1.405e+06 
1.40479e+06 1.40475e+06 1.40472e+06 1.40471e+06 1.40465e+06 1.40456e+06 1.40454e+06 1.40432e+06 1.40429e+06 
1.40417e+06 1.40411e+06 1.40405e+06 1.40401e+06 1.40401e+06 1.40401e+06 1.40387e+06 1.40383e+06 1.40381e+06 
1.40379e+06 1.40379e+06 1.40378e+06 1.40364e+06 1.40355e+06 1.40354e+06 1.40351e+06 1.40344e+06 1.40339e+06 
1.4033e+06 1.40321e+06 1.40318e+06 1.40317e+06 1.40305e+06 1.403e+06 1.40273e+06 1.40265e+06 1.40261e+06 
1.40257e+06 1.40257e+06 1.40257e+06 1.40249e+06 1.40237e+06 1.40231e+06 1.4023e+06 1.40215e+06 1.40215e+06 
1.40215e+06 1.40211e+06 1.40206e+06 1.40205e+06 1.40198e+06 1.40191e+06 1.4019e+06 1.4019e+06 1.40181e+06 
1.40178e+06 1.40173e+06 1.40166e+06 1.40166e+06 1.4016e+06 1.40154e+06 1.40143e+06 1.40134e+06 1.4012e+06 
1.40116e+06 1.40102e+06 1.40091e+06 1.40064e+06 1.40059e+06 1.40037e+06 1.40036e+06 1.40031e+06 1.40025e+06 
1.40009e+06 1.39996e+06 1.39996e+06 1.39986e+06 1.39969e+06 1.39948e+06 1.39946e+06 1.39936e+06 1.39933e+06 
1.39925e+06 1.39924e+06 1.39922e+06 1.39914e+06 1.39908e+06 1.39896e+06 1.39895e+06 1.39887e+06 1.3988e+06 
1.39863e+06 1.39857e+06 1.39851e+06 1.39848e+06 1.39839e+06 1.39832e+06 1.39828e+06 1.39821e+06 1.39819e+06 
1.39815e+06 1.39807e+06 1.39804e+06 1.39794e+06 1.39782e+06 1.39781e+06 1.39779e+06 1.39776e+06 1.39774e+06 
1.39764e+06 1.39754e+06 1.39748e+06 1.39742e+06 1.3974e+06 1.39739e+06 1.39736e+06 1.39728e+06 1.39728e+06 
1.39719e+06 1.3971e+06 1.39705e+06 1.39696e+06 1.39693e+06 1.39692e+06 1.39691e+06 1.39689e+06 1.39674e+06 
1.39669e+06 1.39651e+06 1.39643e+06 1.3964e+06 1.39639e+06 1.39633e+06 1.39632e+06 1.39629e+06 1.39616e+06 
1.39614e+06 1.39609e+06 1.39603e+06 1.39599e+06 1.39596e+06 1.39592e+06 1.3958e+06 1.39575e+06 1.39573e+06 
1.39572e+06 1.39571e+06 1.39561e+06 1.39561e+06 1.39561e+06 1.3956e+06 1.3956e+06 1.3956e+06 1.3956e+06 
1.39559e+06 1.39558e+06 1.39557e+06 1.39556e+06 1.39556e+06 1.39555e+06 1.39554e+06 1.39553e+06 1.39553e+06 
1.3955e+06 1.39541e+06 1.39537e+06 1.39534e+06 1.39518e+06 1.39517e+06 1.39517e+06 1.39515e+06 1.39503e+06 
1.39501e+06 1.395e+06 1.39496e+06 1.39492e+06 1.39479e+06 1.39477e+06 1.39476e+06 1.39476e+06 1.39473e+06 
1.39473e+06 1.39471e+06 1.3946e+06 1.39458e+06 1.39431e+06 1.39428e+06 1.3942e+06 1.39419e+06 1.39418e+06 
1.39416e+06 1.39415e+06 1.39415e+06 1.39415e+06 1.39414e+06 1.39412e+06 1.39411e+06 1.39407e+06 1.39397e+06 
1.39382e+06 1.39367e+06 1.39363e+06 1.39355e+06 1.39353e+06 1.39334e+06 1.3933e+06 1.39329e+06 1.39304e+06 
1.39291e+06 1.39279e+06 1.39276e+06 1.39275e+06 1.39261e+06 1.39257e+06 1.3925e+06 1.39249e+06 1.39229e+06 
1.39226e+06 1.39226e+06 1.39217e+06 1.39204e+06 1.39194e+06 1.39191e+06 1.39188e+06 1.39186e+06 1.39182e+06 
1.39179e+06 1.39169e+06 1.39167e+06 1.39167e+06 1.39163e+06 1.39126e+06 1.39106e+06 1.39104e+06 1.39088e+06 
1.39086e+06 1.39082e+06 1.39081e+06 1.3907e+06 1.39067e+06 1.39059e+06 1.39054e+06 1.39046e+06 1.39046e+06 
1.39046e+06 1.39045e+06 1.39044e+06 1.39043e+06 1.39042e+06 1.39037e+06 1.39037e+06 1.39025e+06 1.3902e+06 
1.3902e+06 1.3902e+06 1.39009e+06 1.39009e+06 1.39005e+06 1.39003e+06 1.39002e+06 1.3899e+06 1.3899e+06 
1.38988e+06 1.38987e+06 1.38981e+06 1.38975e+06 1.38973e+06 1.38972e+06 1.38967e+06 1.38967e+06 1.38963e+06 
1.38957e+06 1.38956e+06 1.38955e+06 1.38952e+06 1.38935e+06 1.38922e+06 1.38921e+06 1.38918e+06 1.38918e+06 
1.38912e+06 1.38911e+06 1.38905e+06 1.38893e+06 1.38877e+06 1.38872e+06 1.38864e+06 1.38857e+06 1.38854e+06 
1.38851e+06 1.38847e+06 1.38845e+06 1.38845e+06 1.38839e+06 1.38838e+06 1.38837e+06 1.38837e+06 1.38836e+06 
1.38835e+06 1.38835e+06 1.38835e+06 1.38834e+06 1.38834e+06 1.38834e+06 1.38834e+06 1.38833e+06 1.38833e+06 
1.38833e+06 1.38833e+06 1.38833e+06 1.38833e+06 1.38833e+06 1.3883e+06 1.3883e+06 1.38829e+06 1.38828e+06 
1.38828e+06 1.38817e+06 1.38812e+06 1.38791e+06 1.38787e+06 1.38786e+06 1.38785e+06 1.38782e+06 1.38781e+06 
1.38781e+06 1.38779e+06 1.38777e+06 1.38777e+06 1.38776e+06 1.3877e+06 1.3877e+06 1.38767e+06 1.38764e+06 
1.38759e+06 1.38759e+06 1.38757e+06 1.38756e+06 1.38754e+06 1.38754e+06 1.38744e+06 1.38738e+06 1.38737e+06 
1.38736e+06 1.38734e+06 1.38728e+06 1.38723e+06 1.38714e+06 1.38708e+06 1.38705e+06 1.38697e+06 1.3867e+06 
1.38667e+06 1.38663e+06 1.38655e+06 1.38652e+06 1.38651e+06 1.3863e+06 1.38608e+06 1.38601e+06 1.38599e+06 
1.38598e+06 1.38594e+06 1.38584e+06 1.38584e+06 1.38584e+06 1.3858e+06 1.38574e+06 1.38573e+06 1.3857e+06 
1.38558e+06 1.38552e+06 1.38546e+06 1.38532e+06 1.38531e+06 1.38526e+06 1.38516e+06 1.38515e+06 1.38512e+06 
1.38506e+06 1.38503e+06 1.38503e+06 1.38495e+06 1.38487e+06 1.38476e+06 1.38476e+06 1.38473e+06 1.38469e+06 
1.38468e+06 1.38463e+06 1.38458e+06 1.38445e+06 1.38443e+06 1.38433e+06 1.38417e+06 1.38417e+06 1.38399e+06 
1.38388e+06 1.38378e+06 1.38367e+06 1.38367e+06 1.38363e+06 1.38363e+06 1.38362e+06 1.38362e+06 1.38362e+06 
1.38362e+06 1.38361e+06 1.38349e+06 1.38349e+06 1.38328e+06 1.38326e+06 1.38325e+06 1.38324e+06 1.38315e+06 
1.38315e+06 1.38314e+06 1.3831e+06 1.3831e+06 1.38298e+06 1.38294e+06 1.38294e+06 1.38291e+06 1.38286e+06 
1.38274e+06 1.38274e+06 1.3827e+06 1.3827e+06 1.38269e+06 1.38264e+06 1.38252e+06 1.38249e+06 1.38248e+06 
1.38238e+06 1.38219e+06 1.38218e+06 1.38217e+06 1.38217e+06 1.38214e+06 1.38212e+06 1.38209e+06 1.38209e+06 
1.38208e+06 1.38208e+06 1.38203e+06 1.382e+06 1.3818e+06 1.38177e+06 1.38177e+06 1.38177e+06 1.38175e+06 
1.38144e+06 1.3813e+06 1.3813e+06 1.38122e+06 1.38111e+06 1.38098e+06 1.38094e+06 1.38089e+06 1.38082e+06 
1.38079e+06 1.38079e+06 1.38063e+06 1.3805e+06 1.38046e+06 1.38023e+06 1.38019e+06 1.38019e+06 1.38012e+06 
1.38007e+06 1.37976e+06 1.37963e+06 1.3796e+06 1.37945e+06 1.37945e+06 1.37937e+06 1.37936e+06 1.37909e+06 
1.37904e+06 1.37903e+06 1.37897e+06 1.37888e+06 1.37884e+06 1.37873e+06 1.37867e+06 1.37861e+06 1.37861e+06 
1.37861e+06 1.37857e+06 1.37856e+06 1.37847e+06 1.37845e+06 1.37842e+06 1.37841e+06 1.37837e+06 1.37827e+06 
1.37808e+06 1.37804e+06 1.37804e+06 1.37804e+06 1.37803e+06 1.37791e+06 1.37787e+06 1.37785e+06 1.37785e+06 
1.37771e+06 1.37768e+06 1.37767e+06 1.37767e+06 1.37759e+06 1.37758e+06 1.37756e+06 1.37755e+06 1.37752e+06 
1.3775e+06 1.37748e+06 1.37747e+06 1.37747e+06 1.37736e+06 1.37735e+06 1.37731e+06 1.3773e+06 1.37715e+06 
1.37706e+06 1.37705e+06 1.37704e+06 1.37704e+06 1.37704e+06 1.377e+06 1.37698e+06 1.37695e+06 1.37688e+06 
1.37663e+06 1.37662e+06 1.37662e+06 1.37662e+06 1.37662e+06 1.3766e+06 1.3766e+06 1.3766e+06 1.37651e+06 
1.37639e+06 1.37617e+06 1.37616e+06 1.37614e+06 1.37613e+06 1.37604e+06 1.37603e+06 1.37598e+06 1.37597e+06 
1.37595e+06 1.37592e+06 1.37592e+06 1.37579e+06 1.37578e+06 1.37575e+06 1.37575e+06 1.37558e+06 1.37534e+06 
1.37531e+06 1.37526e+06 1.3752e+06 1.37518e+06 1.37514e+06 1.37514e+06 1.37508e+06 1.37472e+06 1.37471e+06 
1.37469e+06 1.37462e+06 1.3746e+06 1.37456e+06 1.37452e+06 1.37452e+06 1.37451e+06 1.3744e+06 1.37439e+06 
1.37439e+06 1.37437e+06 1.37437e+06 1.37437e+06 1.37436e+06 1.37414e+06 1.37409e+06 1.37406e+06 1.37403e+06 
1.37392e+06 1.3739e+06 1.37388e+06 1.37378e+06 1.37373e+06 1.37372e+06 1.3737e+06 1.37362e+06 1.3736e+06 
1.3736e+06 1.37359e+06 1.37359e+06 1.37359e+06 1.37356e+06 1.37355e+06 1.37355e+06 1.37355e+06 1.37355e+06 
1.37354e+06 1.37354e+06 1.37352e+06 1.37352e+06 1.37352e+06 1.37351e+06 1.37339e+06 1.37338e+06 1.37335e+06 
1.37335e+06 1.37332e+06 1.3733e+06 1.37327e+06 1.37319e+06 1.37318e+06 1.37313e+06 1.3731e+06 1.37308e+06 
1.37306e+06 1.373e+06 1.37298e+06 1.37294e+06 1.37287e+06 1.37286e+06 1.37285e+06 1.37285e+06 1.37284e+06 
1.3728e+06 1.37279e+06 1.37274e+06 1.37269e+06 1.37267e+06 1.37266e+06 1.37261e+06 1.3726e+06 1.3726e+06 
1.3726e+06 1.3726e+06 1.3726e+06 1.37255e+06 1.37254e+06 1.3725e+06 1.37249e+06 1.37248e+06 1.37242e+06 
1.37238e+06 1.37231e+06 1.37227e+06 1.37224e+06 1.37219e+06 1.37218e+06 1.37203e+06 1.37201e+06 1.37201e+06 
1.37199e+06 1.37199e+06 1.37199e+06 1.37199e+06 1.37194e+06 1.37193e+06 1.3719e+06 1.37188e+06 1.37186e+06 
1.37185e+06 1.37184e+06 1.37183e+06 1.37183e+06 1.37182e+06 1.37182e+06 1.37182e+06 1.37182e+06 1.37181e+06 
1.37181e+06 1.37181e+06 1.37181e+06 1.37181e+06 1.37181e+06 1.37181e+06 1.37181e+06 1.37181e+06 1.37181e+06 
1.37181e+06 1.37181e+06 1.37181e+06 1.3718e+06 1.3718e+06 1.3718e+06 1.3718e+06 1.37177e+06 1.37175e+06 
1.37171e+06 1.37167e+06 1.37166e+06 1.37163e+06 1.37163e+06 1.37163e+06 1.37158e+06 1.37141e+06 1.37132e+06 
1.37123e+06 1.37118e+06 1.37117e+06 1.37111e+06 1.3711e+06 1.3711e+06 1.37093e+06 1.37091e+06 1.37084e+06 
1.37083e+06 1.37072e+06 1.37052e+06 1.37042e+06 1.37017e+06 1.37012e+06 1.3701e+06 1.37008e+06 1.36993e+06 