# vtk DataFile Version 1.0
Unstructured Grid Example
ASCII

DATASET UNSTRUCTURED_GRID
POINTS 36 float

0.0 2.0 3.0
1.0 2.0 3.0
2.0 2.0 3.0
3.0 2.0 3.0
4.0 3.0 3.0
5.0 3.0 3.0
0.0 3.0 3.0
1.0 3.0 3.0
2.0 4.0 3.0
3.0 4.0 3.0
4.0 4.0 4.0
5.0 4.0 4.0
0.0 5.0 4.0
1.0 5.0 4.0
2.0 5.0 4.0
3.0 5.0 4.0
4.0 1.0 4.0
5.0 1.0 4.0
0.0 1.0 4.0
1.0 1.0 4.0
2.0 3.0 2.0
3.0 3.0 2.0
4.0 3.0 2.0
5.0 3.0 2.0
0.0 4.0 2.0
1.0 4.0 2.0
2.0 4.0 2.0
3.0 4.0 2.0
4.0 5.0 2.0
5.0 5.0 2.0
0.0 5.0 1.0
1.0 5.0 1.0
2.0 2.0 1.0
3.0 2.0 5.0
4.0 2.0 5.0
5.0 2.0 5.0

POINT_DATA 36
SCALARS scalars float
LOOKUP_TABLE default

5.0
7.0
9.0
9.0
11.0
13.0
14.0
20.0
21.0
24.0
7.5
9.0
10.0
11.5
12.0
13.5
14.5
29.0
3.0
4.0
6.0
8.0
10.0
12.0
15.0
17.0
19.0
20.5
21.5
22.0
23.0
24.5
25.0
28.0
29.0
30.0

VECTORS vectors float
0 1 0
1 0 0
0 1 0
1 0 0
0 1 0
1 0 0
1 1 0
0 1 0
0 0 1
0 1 0
1 0 0
0 1 0
1 0 0
0 1 0
1 0 0
1 1 0
0 1 0
0 0 1
0 0 1
1 1 1
0 0 1
1 0 1
0 0 1
0 1 1
0 0 1
0 0 1
0 0 1
0 0 1
1 1 1
0 0 1
1 0 1
0 0 1
0 1 1
0 0 1
0 0 1
0 0 1
